# vtk DataFile Version 3.0
Gravity inversion using tesseroids
ASCII
DATASET UNSTRUCTURED_GRID

POINTS	444	double
-7.05887e-10	-3.84267e+06	4.57952e+06
334911	-3.82805e+06	4.57952e+06
667273	-3.78429e+06	4.57952e+06
994557	-3.71174e+06	4.57952e+06
1.31427e+06	-3.61093e+06	4.57952e+06
1.62398e+06	-3.48264e+06	4.57952e+06
1.92134e+06	-3.32785e+06	4.57952e+06
2.20407e+06	-3.14773e+06	4.57952e+06
2.47002e+06	-2.94366e+06	4.57952e+06
-7.76521e-10	-4.22718e+06	4.22718e+06
734042	-4.16296e+06	4.22718e+06
1.44578e+06	-3.97225e+06	4.22718e+06
2.11359e+06	-3.66085e+06	4.22718e+06
2.71718e+06	-3.23821e+06	4.22718e+06
-8.41244e-10	-4.57952e+06	3.84267e+06
399131	-4.56209e+06	3.84267e+06
795225	-4.50995e+06	3.84267e+06
1.18527e+06	-4.42348e+06	3.84267e+06
1.56629e+06	-4.30334e+06	3.84267e+06
1.93539e+06	-4.15045e+06	3.84267e+06
2.28976e+06	-3.96598e+06	3.84267e+06
2.6267e+06	-3.75132e+06	3.84267e+06
2.94366e+06	-3.50811e+06	3.84267e+06
-8.99565e-10	-4.897e+06	3.42892e+06
850356	-4.82261e+06	3.42892e+06
1.67487e+06	-4.60168e+06	3.42892e+06
2.4485e+06	-4.24093e+06	3.42892e+06
3.14773e+06	-3.75132e+06	3.42892e+06
-9.5104e-10	-5.17722e+06	2.98907e+06
451224	-5.15752e+06	2.98907e+06
899015	-5.09856e+06	2.98907e+06
1.33996e+06	-5.00081e+06	2.98907e+06
1.77071e+06	-4.86499e+06	2.98907e+06
2.18799e+06	-4.69215e+06	2.98907e+06
2.58861e+06	-4.4836e+06	2.98907e+06
2.96953e+06	-4.24093e+06	2.98907e+06
3.32785e+06	-3.96598e+06	2.98907e+06
-9.95276e-10	-5.41803e+06	2.52647e+06
940831	-5.33572e+06	2.52647e+06
1.85308e+06	-5.09128e+06	2.52647e+06
2.70902e+06	-4.69215e+06	2.52647e+06
3.48264e+06	-4.15045e+06	2.52647e+06
-1.03194e-09	-5.61761e+06	2.04464e+06
489607	-5.59623e+06	2.04464e+06
975488	-5.53227e+06	2.04464e+06
1.45394e+06	-5.4262e+06	2.04464e+06
1.92134e+06	-5.27883e+06	2.04464e+06
2.37411e+06	-5.09128e+06	2.04464e+06
2.80881e+06	-4.86499e+06	2.04464e+06
3.22213e+06	-4.60168e+06	2.04464e+06
3.61093e+06	-4.30334e+06	2.04464e+06
-7.11791e-10	-3.87481e+06	4.61782e+06
672854	-3.81594e+06	4.61782e+06
1.32526e+06	-3.64113e+06	4.61782e+06
1.93741e+06	-3.35569e+06	4.61782e+06
2.49068e+06	-2.96828e+06	4.61782e+06
-8.4828e-10	-4.61782e+06	3.87481e+06
801876	-4.54767e+06	3.87481e+06
1.57939e+06	-4.33933e+06	3.87481e+06
2.30891e+06	-3.99915e+06	3.87481e+06
2.96828e+06	-3.53746e+06	3.87481e+06
-9.58994e-10	-5.22052e+06	3.01407e+06
906534	-5.14121e+06	3.01407e+06
1.78552e+06	-4.90568e+06	3.01407e+06
2.61026e+06	-4.5211e+06	3.01407e+06
3.35569e+06	-3.99915e+06	3.01407e+06
-1.04057e-09	-5.6646e+06	2.06174e+06
983647	-5.57854e+06	2.06174e+06
1.93741e+06	-5.32298e+06	2.06174e+06
2.8323e+06	-4.90568e+06	2.06174e+06
3.64113e+06	-4.33933e+06	2.06174e+06
-7.17695e-10	-3.90695e+06	4.65612e+06
340513	-3.89208e+06	4.65612e+06
678435	-3.8476e+06	4.65612e+06
1.01119e+06	-3.77383e+06	4.65612e+06
1.33626e+06	-3.67133e+06	4.65612e+06
1.65115e+06	-3.5409e+06	4.65612e+06
1.95348e+06	-3.38352e+06	4.65612e+06
2.24094e+06	-3.20039e+06	4.65612e+06
2.51134e+06	-2.9929e+06	4.65612e+06
-7.8951e-10	-4.29789e+06	4.29789e+06
746321	-4.2326e+06	4.29789e+06
1.46997e+06	-4.0387e+06	4.29789e+06
2.14895e+06	-3.72208e+06	4.29789e+06
2.76263e+06	-3.29238e+06	4.29789e+06
-8.55316e-10	-4.65612e+06	3.90695e+06
405808	-4.63841e+06	3.90695e+06
808527	-4.58539e+06	3.90695e+06
1.00777e+06	-4.54575e+06	3.90695e+06
1.20509e+06	-4.49747e+06	3.90695e+06
1.40012e+06	-4.44062e+06	3.90695e+06
1.59249e+06	-4.37532e+06	3.90695e+06
1.78182e+06	-4.3017e+06	3.90695e+06
1.96776e+06	-4.21988e+06	3.90695e+06
2.14996e+06	-4.13003e+06	3.90695e+06
2.32806e+06	-4.03232e+06	3.90695e+06
2.67064e+06	-3.81407e+06	3.90695e+06
2.9929e+06	-3.5668e+06	3.90695e+06
837351	-4.74885e+06	3.70014e+06
1.24805e+06	-4.6578e+06	3.70014e+06
1.64926e+06	-4.5313e+06	3.70014e+06
2.03791e+06	-4.37032e+06	3.70014e+06
2.41106e+06	-4.17607e+06	3.70014e+06
-9.14612e-10	-4.97892e+06	3.48628e+06
864580	-4.90328e+06	3.48628e+06
1.07764e+06	-4.8609e+06	3.48628e+06
1.28864e+06	-4.80927e+06	3.48628e+06
1.49719e+06	-4.74848e+06	3.48628e+06
1.70289e+06	-4.67865e+06	3.48628e+06
1.90535e+06	-4.59992e+06	3.48628e+06
2.10418e+06	-4.51243e+06	3.48628e+06
2.29901e+06	-4.41635e+06	3.48628e+06
2.48946e+06	-4.31187e+06	3.48628e+06
3.20039e+06	-3.81407e+06	3.48628e+06
890164	-5.04837e+06	3.26578e+06
1.32677e+06	-4.95158e+06	3.26578e+06
1.75328e+06	-4.8171e+06	3.26578e+06
2.16645e+06	-4.64596e+06	3.26578e+06
2.56312e+06	-4.43946e+06	3.26578e+06
-9.66948e-10	-5.26382e+06	3.03907e+06
458772	-5.24379e+06	3.03907e+06
914053	-5.18385e+06	3.03907e+06
1.1393e+06	-5.13905e+06	3.03907e+06
1.36238e+06	-5.08446e+06	3.03907e+06
1.58286e+06	-5.0202e+06	3.03907e+06
1.80033e+06	-4.94637e+06	3.03907e+06
2.01438e+06	-4.86314e+06	3.03907e+06
2.22459e+06	-4.77064e+06	3.03907e+06
2.43056e+06	-4.66907e+06	3.03907e+06
2.63191e+06	-4.5586e+06	3.03907e+06
3.0192e+06	-4.31187e+06	3.03907e+06
3.38352e+06	-4.03232e+06	3.03907e+06
-1.01192e-09	-5.50866e+06	2.56873e+06
956569	-5.42497e+06	2.56873e+06
1.88407e+06	-5.17645e+06	2.56873e+06
2.75433e+06	-4.77064e+06	2.56873e+06
3.5409e+06	-4.21988e+06	2.56873e+06
-1.0492e-09	-5.71158e+06	2.07885e+06
497797	-5.68985e+06	2.07885e+06
991806	-5.62481e+06	2.07885e+06
1.47827e+06	-5.51696e+06	2.07885e+06
1.95348e+06	-5.36713e+06	2.07885e+06
2.41382e+06	-5.17645e+06	2.07885e+06
2.85579e+06	-4.94637e+06	2.07885e+06
3.27603e+06	-4.67865e+06	2.07885e+06
3.67133e+06	-4.37532e+06	2.07885e+06
811853	-4.60425e+06	3.92302e+06
1.21005e+06	-4.51597e+06	3.92302e+06
1.59904e+06	-4.39332e+06	3.92302e+06
1.97586e+06	-4.23724e+06	3.92302e+06
2.33764e+06	-4.04891e+06	3.92302e+06
868136	-4.92345e+06	3.50062e+06
1.29394e+06	-4.82905e+06	3.50062e+06
1.70989e+06	-4.6979e+06	3.50062e+06
2.11284e+06	-4.53099e+06	3.50062e+06
2.4997e+06	-4.3296e+06	3.50062e+06
917813	-5.20517e+06	3.05157e+06
1.36798e+06	-5.10537e+06	3.05157e+06
1.80774e+06	-4.96672e+06	3.05157e+06
2.23374e+06	-4.79026e+06	3.05157e+06
2.64274e+06	-4.57735e+06	3.05157e+06
-7.23599e-10	-3.93909e+06	4.69443e+06
684016	-3.87925e+06	4.69443e+06
1.34725e+06	-3.70153e+06	4.69443e+06
1.96955e+06	-3.41135e+06	4.69443e+06
2.532e+06	-3.01752e+06	4.69443e+06
-8.62352e-10	-4.69443e+06	3.93909e+06
815178	-4.62311e+06	3.93909e+06
1.01606e+06	-4.58315e+06	3.93909e+06
1.21501e+06	-4.53447e+06	3.93909e+06
1.41164e+06	-4.47715e+06	3.93909e+06
1.60559e+06	-4.41132e+06	3.93909e+06
1.79648e+06	-4.33708e+06	3.93909e+06
1.98395e+06	-4.25459e+06	3.93909e+06
2.16764e+06	-4.16401e+06	3.93909e+06
2.34721e+06	-4.06549e+06	3.93909e+06
3.01752e+06	-3.59614e+06	3.93909e+06
844239	-4.78792e+06	3.73057e+06
1.25832e+06	-4.69612e+06	3.73057e+06
1.66283e+06	-4.56858e+06	3.73057e+06
2.05468e+06	-4.40627e+06	3.73057e+06
2.43089e+06	-4.21042e+06	3.73057e+06
871692	-4.94361e+06	3.51495e+06
1.0865e+06	-4.90088e+06	3.51495e+06
1.29924e+06	-4.84883e+06	3.51495e+06
1.50951e+06	-4.78754e+06	3.51495e+06
1.7169e+06	-4.71714e+06	3.51495e+06
1.92102e+06	-4.63776e+06	3.51495e+06
2.12149e+06	-4.54955e+06	3.51495e+06
2.31792e+06	-4.45268e+06	3.51495e+06
2.50994e+06	-4.34734e+06	3.51495e+06
897486	-5.0899e+06	3.29265e+06
1.33769e+06	-4.99231e+06	3.29265e+06
1.7677e+06	-4.85672e+06	3.29265e+06
2.18427e+06	-4.68418e+06	3.29265e+06
2.58421e+06	-4.47598e+06	3.29265e+06
-9.74903e-10	-5.30712e+06	3.06407e+06
921572	-5.2265e+06	3.06407e+06
1.14867e+06	-5.18132e+06	3.06407e+06
1.37358e+06	-5.12629e+06	3.06407e+06
1.59588e+06	-5.06149e+06	3.06407e+06
1.81514e+06	-4.98706e+06	3.06407e+06
2.03095e+06	-4.90314e+06	3.06407e+06
2.24289e+06	-4.80989e+06	3.06407e+06
2.45056e+06	-4.70747e+06	3.06407e+06
2.65356e+06	-4.5961e+06	3.06407e+06
3.41135e+06	-4.06549e+06	3.06407e+06
-1.05783e-09	-5.75857e+06	2.09595e+06
999964	-5.67108e+06	2.09595e+06
1.96955e+06	-5.41128e+06	2.09595e+06
2.87928e+06	-4.98706e+06	2.09595e+06
3.70153e+06	-4.41132e+06	2.09595e+06
818504	-4.64197e+06	3.95516e+06
1.21996e+06	-4.55297e+06	3.95516e+06
1.61214e+06	-4.42931e+06	3.95516e+06
1.99204e+06	-4.27195e+06	3.95516e+06
2.35679e+06	-4.08208e+06	3.95516e+06
875248	-4.96378e+06	3.52929e+06
1.30454e+06	-4.86861e+06	3.52929e+06
1.7239e+06	-4.73638e+06	3.52929e+06
2.13015e+06	-4.56811e+06	3.52929e+06
2.52018e+06	-4.36508e+06	3.52929e+06
925332	-5.24782e+06	3.07657e+06
1.37919e+06	-5.1472e+06	3.07657e+06
1.82255e+06	-5.00741e+06	3.07657e+06
2.25204e+06	-4.82951e+06	3.07657e+06
2.66439e+06	-4.61485e+06	3.07657e+06
-7.29503e-10	-3.97123e+06	4.73273e+06
346115	-3.95612e+06	4.73273e+06
689597	-3.9109e+06	4.73273e+06
1.02783e+06	-3.83591e+06	4.73273e+06
1.35824e+06	-3.73174e+06	4.73273e+06
1.67831e+06	-3.59916e+06	4.73273e+06
1.98561e+06	-3.43919e+06	4.73273e+06
2.2778e+06	-3.25304e+06	4.73273e+06
2.55266e+06	-3.04214e+06	4.73273e+06
-8.02499e-10	-4.3686e+06	4.3686e+06
758600	-4.30223e+06	4.3686e+06
1.49415e+06	-4.10514e+06	4.3686e+06
2.1843e+06	-3.78332e+06	4.3686e+06
2.80808e+06	-3.34654e+06	4.3686e+06
-8.69388e-10	-4.73273e+06	3.97123e+06
412484	-4.71472e+06	3.97123e+06
821830	-4.66083e+06	3.97123e+06
1.02435e+06	-4.62054e+06	3.97123e+06
1.22492e+06	-4.57146e+06	3.97123e+06
1.42316e+06	-4.51368e+06	3.97123e+06
1.61869e+06	-4.44731e+06	3.97123e+06
1.81114e+06	-4.37247e+06	3.97123e+06
2.00014e+06	-4.28931e+06	3.97123e+06
2.18533e+06	-4.19798e+06	3.97123e+06
2.36636e+06	-4.09866e+06	3.97123e+06
2.71458e+06	-3.87682e+06	3.97123e+06
3.04214e+06	-3.62548e+06	3.97123e+06
851127	-4.82698e+06	3.76101e+06
1.26859e+06	-4.73443e+06	3.76101e+06
1.67639e+06	-4.60585e+06	3.76101e+06
2.07144e+06	-4.44222e+06	3.76101e+06
2.45072e+06	-4.24478e+06	3.76101e+06
-9.2966e-10	-5.06083e+06	3.54363e+06
878805	-4.98395e+06	3.54363e+06
1.09536e+06	-4.94087e+06	3.54363e+06
1.30984e+06	-4.88839e+06	3.54363e+06
1.52182e+06	-4.8266e+06	3.54363e+06
1.73091e+06	-4.75563e+06	3.54363e+06
1.9367e+06	-4.6756e+06	3.54363e+06
2.1388e+06	-4.58667e+06	3.54363e+06
2.33683e+06	-4.48901e+06	3.54363e+06
2.53042e+06	-4.38281e+06	3.54363e+06
3.25304e+06	-3.87682e+06	3.54363e+06
904809	-5.13143e+06	3.31951e+06
1.3486e+06	-5.03304e+06	3.31951e+06
1.78213e+06	-4.89635e+06	3.31951e+06
2.20209e+06	-4.7224e+06	3.31951e+06
2.60529e+06	-4.5125e+06	3.31951e+06
-9.82857e-10	-5.35042e+06	3.08907e+06
466320	-5.33006e+06	3.08907e+06
929091	-5.26914e+06	3.08907e+06
1.15804e+06	-5.2236e+06	3.08907e+06
1.38479e+06	-5.16811e+06	3.08907e+06
1.6089e+06	-5.10279e+06	3.08907e+06
1.82995e+06	-5.02775e+06	3.08907e+06
2.04752e+06	-4.94315e+06	3.08907e+06
2.26119e+06	-4.84913e+06	3.08907e+06
2.47055e+06	-4.74588e+06	3.08907e+06
2.67521e+06	-4.6336e+06	3.08907e+06
3.06888e+06	-4.38281e+06	3.08907e+06
3.43919e+06	-4.09866e+06	3.08907e+06
-1.02857e-09	-5.59929e+06	2.61099e+06
972307	-5.51423e+06	2.61099e+06
1.91507e+06	-5.26161e+06	2.61099e+06
2.79965e+06	-4.84913e+06	2.61099e+06
3.59916e+06	-4.28931e+06	2.61099e+06
-1.06646e-09	-5.80555e+06	2.11305e+06
505987	-5.78346e+06	2.11305e+06
1.00812e+06	-5.71735e+06	2.11305e+06
1.50259e+06	-5.60773e+06	2.11305e+06
1.98561e+06	-5.45543e+06	2.11305e+06
2.45353e+06	-5.26161e+06	2.11305e+06
2.90277e+06	-5.02775e+06	2.11305e+06
3.32993e+06	-4.75563e+06	2.11305e+06
3.73174e+06	-4.44731e+06	2.11305e+06
-7.35407e-10	-4.00337e+06	4.77103e+06
695178	-3.94255e+06	4.77103e+06
1.36923e+06	-3.76194e+06	4.77103e+06
2.00168e+06	-3.46702e+06	4.77103e+06
2.57332e+06	-3.06676e+06	4.77103e+06
-8.76424e-10	-4.77103e+06	4.00337e+06
828481	-4.69855e+06	4.00337e+06
1.63179e+06	-4.4833e+06	4.00337e+06
2.38551e+06	-4.13183e+06	4.00337e+06
3.06676e+06	-3.65482e+06	4.00337e+06
-9.90811e-10	-5.39372e+06	3.11407e+06
936610	-5.31178e+06	3.11407e+06
1.84476e+06	-5.06844e+06	3.11407e+06
2.69686e+06	-4.6711e+06	3.11407e+06
3.46702e+06	-4.13183e+06	3.11407e+06
-1.07509e-09	-5.85253e+06	2.13015e+06
1.01628e+06	-5.76362e+06	2.13015e+06
2.00168e+06	-5.49958e+06	2.13015e+06
2.92627e+06	-5.06844e+06	2.13015e+06
3.76194e+06	-4.4833e+06	2.13015e+06
-7.41311e-10	-4.03551e+06	4.80933e+06
351718	-4.02015e+06	4.80933e+06
700759	-3.9742e+06	4.80933e+06
1.04447e+06	-3.898e+06	4.80933e+06
1.38023e+06	-3.79214e+06	4.80933e+06
1.70548e+06	-3.65741e+06	4.80933e+06
2.01775e+06	-3.49485e+06	4.80933e+06
2.31467e+06	-3.3057e+06	4.80933e+06
2.59397e+06	-3.09138e+06	4.80933e+06
-8.15489e-10	-4.43931e+06	4.43931e+06
770879	-4.37187e+06	4.43931e+06
1.51833e+06	-4.17159e+06	4.43931e+06
2.21966e+06	-3.84456e+06	4.43931e+06
2.85354e+06	-3.40071e+06	4.43931e+06
-8.8346e-10	-4.80933e+06	4.03551e+06
419161	-4.79103e+06	4.03551e+06
835132	-4.73627e+06	4.03551e+06
1.24475e+06	-4.64546e+06	4.03551e+06
1.64489e+06	-4.51929e+06	4.03551e+06
2.03251e+06	-4.35874e+06	4.03551e+06
2.40467e+06	-4.165e+06	4.03551e+06
2.75852e+06	-3.93957e+06	4.03551e+06
3.09138e+06	-3.68416e+06	4.03551e+06
-9.44708e-10	-5.14275e+06	3.60099e+06
893029	-5.06462e+06	3.60099e+06
1.75892e+06	-4.8326e+06	3.60099e+06
2.57137e+06	-4.45375e+06	3.60099e+06
3.3057e+06	-3.93957e+06	3.60099e+06
-9.98765e-10	-5.43703e+06	3.13907e+06
473868	-5.41634e+06	3.13907e+06
944130	-5.35443e+06	3.13907e+06
1.40721e+06	-5.25176e+06	3.13907e+06
1.85957e+06	-5.10913e+06	3.13907e+06
2.29779e+06	-4.92762e+06	3.13907e+06
2.71851e+06	-4.7086e+06	3.13907e+06
3.11855e+06	-4.45375e+06	3.13907e+06
3.49485e+06	-4.165e+06	3.13907e+06
-1.04522e-09	-5.68992e+06	2.65326e+06
988045	-5.60348e+06	2.65326e+06
1.94607e+06	-5.34678e+06	2.65326e+06
2.84496e+06	-4.92762e+06	2.65326e+06
3.65741e+06	-4.35874e+06	2.65326e+06
-1.08372e-09	-5.89952e+06	2.14725e+06
514177	-5.87707e+06	2.14725e+06
1.02444e+06	-5.80989e+06	2.14725e+06
1.52691e+06	-5.6985e+06	2.14725e+06
2.01775e+06	-5.54373e+06	2.14725e+06
2.49324e+06	-5.34678e+06	2.14725e+06
2.94976e+06	-5.10913e+06	2.14725e+06
3.38383e+06	-4.8326e+06	2.14725e+06
3.79214e+06	-4.51929e+06	2.14725e+06
-7.47215e-10	-4.06765e+06	4.84763e+06
706340	-4.00585e+06	4.84763e+06
1.39122e+06	-3.82234e+06	4.84763e+06
2.03382e+06	-3.52269e+06	4.84763e+06
2.61463e+06	-3.116e+06	4.84763e+06
-8.90496e-10	-4.84763e+06	4.06765e+06
841783	-4.77399e+06	4.06765e+06
1.65799e+06	-4.55529e+06	4.06765e+06
2.42382e+06	-4.19817e+06	4.06765e+06
3.116e+06	-3.7135e+06	4.06765e+06
-1.00672e-09	-5.48033e+06	3.16407e+06
951649	-5.39707e+06	3.16407e+06
1.87438e+06	-5.14982e+06	3.16407e+06
2.74016e+06	-4.7461e+06	3.16407e+06
3.52269e+06	-4.19817e+06	3.16407e+06
-1.09235e-09	-5.9465e+06	2.16435e+06
1.0326e+06	-5.85616e+06	2.16435e+06
2.03382e+06	-5.58789e+06	2.16435e+06
2.97325e+06	-5.14982e+06	2.16435e+06
3.82234e+06	-4.55529e+06	2.16435e+06
-7.53119e-10	-4.09979e+06	4.88594e+06
357320	-4.08419e+06	4.88594e+06
711921	-4.0375e+06	4.88594e+06
1.0611e+06	-3.96009e+06	4.88594e+06
1.40221e+06	-3.85254e+06	4.88594e+06
1.73265e+06	-3.71567e+06	4.88594e+06
2.04989e+06	-3.55052e+06	4.88594e+06
2.35154e+06	-3.35835e+06	4.88594e+06
2.63529e+06	-3.14062e+06	4.88594e+06
-8.28478e-10	-4.51002e+06	4.51002e+06
783157	-4.44151e+06	4.51002e+06
1.54252e+06	-4.23804e+06	4.51002e+06
2.25501e+06	-3.9058e+06	4.51002e+06
2.89899e+06	-3.45488e+06	4.51002e+06
-8.97532e-10	-4.88594e+06	4.09979e+06
425837	-4.86734e+06	4.09979e+06
848434	-4.81171e+06	4.09979e+06
1.26457e+06	-4.71945e+06	4.09979e+06
1.67109e+06	-4.59128e+06	4.09979e+06
2.06489e+06	-4.42816e+06	4.09979e+06
2.44297e+06	-4.23135e+06	4.09979e+06
2.80246e+06	-4.00232e+06	4.09979e+06
3.14062e+06	-3.74284e+06	4.09979e+06
-9.59755e-10	-5.22466e+06	3.65835e+06
907253	-5.14529e+06	3.65835e+06
1.78694e+06	-4.90958e+06	3.65835e+06
2.61233e+06	-4.52469e+06	3.65835e+06
3.35835e+06	-4.00232e+06	3.65835e+06
-1.01467e-09	-5.52363e+06	3.18907e+06
481416	-5.50261e+06	3.18907e+06
959168	-5.43971e+06	3.18907e+06
1.42962e+06	-5.33542e+06	3.18907e+06
1.88919e+06	-5.19051e+06	3.18907e+06
2.33439e+06	-5.00611e+06	3.18907e+06
2.76181e+06	-4.7836e+06	3.18907e+06
3.16822e+06	-4.52469e+06	3.18907e+06
3.55052e+06	-4.23135e+06	3.18907e+06
-1.06187e-09	-5.78056e+06	2.69552e+06
1.00378e+06	-5.69274e+06	2.69552e+06
1.97707e+06	-5.43195e+06	2.69552e+06
2.89028e+06	-5.00611e+06	2.69552e+06
3.71567e+06	-4.42816e+06	2.69552e+06
-1.10099e-09	-5.99349e+06	2.18145e+06
522367	-5.97068e+06	2.18145e+06
1.04076e+06	-5.90243e+06	2.18145e+06
1.55123e+06	-5.78927e+06	2.18145e+06
2.04989e+06	-5.63204e+06	2.18145e+06
2.53296e+06	-5.43195e+06	2.18145e+06
2.99674e+06	-5.19051e+06	2.18145e+06
3.43772e+06	-4.90958e+06	2.18145e+06
3.85254e+06	-4.59128e+06	2.18145e+06

CELLS	62	1302
20	0	14	16	2	71	85	87	73	9	15	10	1	80	86	81	72	51	56	57	52	
20	71	85	87	73	227	241	243	229	80	86	81	72	236	242	237	228	161	166	167	162	
20	227	241	243	229	322	336	338	324	236	242	237	228	331	337	332	323	302	307	308	303	
20	322	336	338	324	393	407	409	395	331	337	332	323	402	408	403	394	373	378	379	374	
20	2	16	18	4	73	87	91	75	10	17	11	3	81	89	82	74	52	57	58	53	
20	73	87	91	75	229	243	247	231	81	89	82	74	237	245	238	230	162	167	171	163	
20	229	243	247	231	324	338	340	326	237	245	238	230	332	339	333	325	303	308	309	304	
20	324	338	340	326	395	409	411	397	332	339	333	325	403	410	404	396	374	379	380	375	
20	4	18	20	6	75	91	95	77	11	19	12	5	82	93	83	76	53	58	59	54	
20	75	91	95	77	231	247	251	233	82	93	83	76	238	249	239	232	163	171	175	164	
20	231	247	251	233	326	340	342	328	238	249	239	232	333	341	334	327	304	309	310	305	
20	326	340	342	328	397	411	413	399	333	341	334	327	404	412	405	398	375	380	381	376	
20	6	20	22	8	77	95	97	79	12	21	13	7	83	96	84	78	54	59	60	55	
20	77	95	97	79	233	251	253	235	83	96	84	78	239	252	240	234	164	175	176	165	
20	233	251	253	235	328	342	344	330	239	252	240	234	334	343	335	329	305	310	311	306	
20	328	342	344	330	399	413	415	401	334	343	335	329	405	414	406	400	376	381	382	377	
20	14	28	30	16	85	119	121	87	23	29	24	15	103	120	104	86	56	61	62	57	
20	85	119	121	87	241	275	277	243	103	120	104	86	259	276	260	242	166	196	197	167	
20	241	275	277	243	336	350	352	338	259	276	260	242	345	351	346	337	307	312	313	308	
20	336	350	352	338	407	421	423	409	345	351	346	337	416	422	417	408	378	383	384	379	
20	16	30	32	18	87	121	125	91	24	31	25	17	104	123	108	89	57	62	63	58	
20	87	104	106	89	167	182	184	169	98	105	99	88	177	183	178	168	146	151	152	147	
20	167	182	184	169	243	260	262	245	177	183	178	168	254	261	255	244	212	217	218	213	
20	89	106	108	91	169	184	186	171	99	107	100	90	178	185	179	170	147	152	153	148	
20	169	184	186	171	245	262	264	247	178	185	179	170	255	263	256	246	213	218	219	214	
20	104	121	123	106	182	197	199	184	114	122	115	105	191	198	192	183	151	156	157	152	
20	182	197	199	184	260	277	279	262	191	198	192	183	270	278	271	261	217	222	223	218	
20	106	123	125	108	184	199	201	186	115	124	116	107	192	200	193	185	152	157	158	153	
20	184	199	201	186	262	279	281	264	192	200	193	185	271	280	272	263	218	223	224	219	
20	243	277	281	247	338	352	354	340	260	279	264	245	346	353	347	339	308	313	314	309	
20	338	352	354	340	409	423	425	411	346	353	347	339	417	424	418	410	379	384	385	380	
20	18	32	34	20	91	125	129	95	25	33	26	19	108	127	112	93	58	63	64	59	
20	91	108	110	93	171	186	188	173	100	109	101	92	179	187	180	172	148	153	154	149	
20	171	186	188	173	247	264	266	249	179	187	180	172	256	265	257	248	214	219	220	215	
20	93	110	112	95	173	188	190	175	101	111	102	94	180	189	181	174	149	154	155	150	
20	173	188	190	175	249	266	268	251	180	189	181	174	257	267	258	250	215	220	221	216	
20	108	125	127	110	186	201	203	188	116	126	117	109	193	202	194	187	153	158	159	154	
20	186	201	203	188	264	281	283	266	193	202	194	187	272	282	273	265	219	224	225	220	
20	110	127	129	112	188	203	205	190	117	128	118	111	194	204	195	189	154	159	160	155	
20	188	203	205	190	266	283	285	268	194	204	195	189	273	284	274	267	220	225	226	221	
20	247	281	285	251	340	354	356	342	264	283	268	249	347	355	348	341	309	314	315	310	
20	340	354	356	342	411	425	427	413	347	355	348	341	418	426	419	412	380	385	386	381	
20	20	34	36	22	95	129	131	97	26	35	27	21	112	130	113	96	59	64	65	60	
20	95	129	131	97	251	285	287	253	112	130	113	96	268	286	269	252	175	205	206	176	
20	251	285	287	253	342	356	358	344	268	286	269	252	348	357	349	343	310	315	316	311	
20	342	356	358	344	413	427	429	415	348	357	349	343	419	428	420	414	381	386	387	382	
20	28	42	44	30	119	137	139	121	37	43	38	29	132	138	133	120	61	66	67	62	
20	119	137	139	121	275	293	295	277	132	138	133	120	288	294	289	276	196	207	208	197	
20	275	293	295	277	350	364	366	352	288	294	289	276	359	365	360	351	312	317	318	313	
20	350	364	366	352	421	435	437	423	359	365	360	351	430	436	431	422	383	388	389	384	
20	30	44	46	32	121	139	141	125	38	45	39	31	133	140	134	123	62	67	68	63	
20	121	139	141	125	277	295	297	281	133	140	134	123	289	296	290	279	197	208	209	201	
20	277	295	297	281	352	366	368	354	289	296	290	279	360	367	361	353	313	318	319	314	
20	352	366	368	354	423	437	439	425	360	367	361	353	431	438	432	424	384	389	390	385	
20	32	46	48	34	125	141	143	129	39	47	40	33	134	142	135	127	63	68	69	64	
20	125	141	143	129	281	297	299	285	134	142	135	127	290	298	291	283	201	209	210	205	
20	281	297	299	285	354	368	370	356	290	298	291	283	361	369	362	355	314	319	320	315	
20	354	368	370	356	425	439	441	427	361	369	362	355	432	440	433	426	385	390	391	386	
20	34	48	50	36	129	143	145	131	40	49	41	35	135	144	136	130	64	69	70	65	
20	129	143	145	131	285	299	301	287	135	144	136	130	291	300	292	286	205	210	211	206	
20	285	299	301	287	356	370	372	358	291	300	292	286	362	371	363	357	315	320	321	316	
20	356	370	372	358	427	441	443	429	362	371	363	357	433	442	434	428	386	391	392	387	

CELL_TYPES	62
25
25
25
25
25
25
25
25
25
25
25
25
25
25
25
25
25
25
25
25
25
25
25
25
25
25
25
25
25
25
25
25
25
25
25
25
25
25
25
25
25
25
25
25
25
25
25
25
25
25
25
25
25
25
25
25
25
25
25
25
25
25

CELL_DATA	62
SCALARS model double 1
LOOKUP_TABLE table0
0
0
0
0
0
0
0
0
0
0
0
0
0
0
0
0
0
0
0
0
0
100
100
100
100
100
100
100
100
0
0
0
100
100
100
100
100
100
100
100
0
0
0
0
0
0
0
0
0
0
0
0
0
0
0
0
0
0
0
0
0
0
SCALARS m0 double 1
LOOKUP_TABLE table1
0
0
0
0
0
0
0
0
0
0
0
0
0
0
0
0
0
0
0
0
0
0
0
0
0
0
0
0
0
0
0
0
0
0
0
0
0
0
0
0
0
0
0
0
0
0
0
0
0
0
0
0
0
0
0
0
0
0
0
0
0
0
SCALARS m0s double 1
LOOKUP_TABLE table2
0
0
0
0
0
0
0
0
0
0
0
0
0
0
0
0
0
0
0
0
0
0
0
0
0
0
0
0
0
0
0
0
0
0
0
0
0
0
0
0
0
0
0
0
0
0
0
0
0
0
0
0
0
0
0
0
0
0
0
0
0
0

