# vtk DataFile Version 3.0
Gravity inversion using tesseroids
ASCII
DATASET UNSTRUCTURED_GRID

POINTS	335	double
-7.05887e-10	-3.84267e+06	4.57952e+06
334911	-3.82805e+06	4.57952e+06
667273	-3.78429e+06	4.57952e+06
994557	-3.71174e+06	4.57952e+06
1.31427e+06	-3.61093e+06	4.57952e+06
1.62398e+06	-3.48264e+06	4.57952e+06
1.92134e+06	-3.32785e+06	4.57952e+06
2.20407e+06	-3.14773e+06	4.57952e+06
2.47002e+06	-2.94366e+06	4.57952e+06
-7.76521e-10	-4.22718e+06	4.22718e+06
734042	-4.16296e+06	4.22718e+06
1.44578e+06	-3.97225e+06	4.22718e+06
2.11359e+06	-3.66085e+06	4.22718e+06
2.71718e+06	-3.23821e+06	4.22718e+06
-8.41244e-10	-4.57952e+06	3.84267e+06
399131	-4.56209e+06	3.84267e+06
795225	-4.50995e+06	3.84267e+06
1.18527e+06	-4.42348e+06	3.84267e+06
1.56629e+06	-4.30334e+06	3.84267e+06
1.93539e+06	-4.15045e+06	3.84267e+06
2.28976e+06	-3.96598e+06	3.84267e+06
2.6267e+06	-3.75132e+06	3.84267e+06
2.94366e+06	-3.50811e+06	3.84267e+06
-8.99565e-10	-4.897e+06	3.42892e+06
850356	-4.82261e+06	3.42892e+06
1.67487e+06	-4.60168e+06	3.42892e+06
2.4485e+06	-4.24093e+06	3.42892e+06
3.14773e+06	-3.75132e+06	3.42892e+06
-9.5104e-10	-5.17722e+06	2.98907e+06
451224	-5.15752e+06	2.98907e+06
899015	-5.09856e+06	2.98907e+06
1.33996e+06	-5.00081e+06	2.98907e+06
1.77071e+06	-4.86499e+06	2.98907e+06
2.18799e+06	-4.69215e+06	2.98907e+06
2.58861e+06	-4.4836e+06	2.98907e+06
2.96953e+06	-4.24093e+06	2.98907e+06
3.32785e+06	-3.96598e+06	2.98907e+06
-9.95276e-10	-5.41803e+06	2.52647e+06
940831	-5.33572e+06	2.52647e+06
1.85308e+06	-5.09128e+06	2.52647e+06
2.70902e+06	-4.69215e+06	2.52647e+06
3.48264e+06	-4.15045e+06	2.52647e+06
-1.03194e-09	-5.61761e+06	2.04464e+06
489607	-5.59623e+06	2.04464e+06
975488	-5.53227e+06	2.04464e+06
1.45394e+06	-5.4262e+06	2.04464e+06
1.92134e+06	-5.27883e+06	2.04464e+06
2.37411e+06	-5.09128e+06	2.04464e+06
2.80881e+06	-4.86499e+06	2.04464e+06
3.22213e+06	-4.60168e+06	2.04464e+06
3.61093e+06	-4.30334e+06	2.04464e+06
-7.11791e-10	-3.87481e+06	4.61782e+06
672854	-3.81594e+06	4.61782e+06
1.32526e+06	-3.64113e+06	4.61782e+06
1.93741e+06	-3.35569e+06	4.61782e+06
2.49068e+06	-2.96828e+06	4.61782e+06
-8.4828e-10	-4.61782e+06	3.87481e+06
801876	-4.54767e+06	3.87481e+06
1.57939e+06	-4.33933e+06	3.87481e+06
2.30891e+06	-3.99915e+06	3.87481e+06
2.96828e+06	-3.53746e+06	3.87481e+06
-9.58994e-10	-5.22052e+06	3.01407e+06
906534	-5.14121e+06	3.01407e+06
1.78552e+06	-4.90568e+06	3.01407e+06
2.61026e+06	-4.5211e+06	3.01407e+06
3.35569e+06	-3.99915e+06	3.01407e+06
-1.04057e-09	-5.6646e+06	2.06174e+06
983647	-5.57854e+06	2.06174e+06
1.93741e+06	-5.32298e+06	2.06174e+06
2.8323e+06	-4.90568e+06	2.06174e+06
3.64113e+06	-4.33933e+06	2.06174e+06
-7.17695e-10	-3.90695e+06	4.65612e+06
340513	-3.89208e+06	4.65612e+06
678435	-3.8476e+06	4.65612e+06
1.01119e+06	-3.77383e+06	4.65612e+06
1.33626e+06	-3.67133e+06	4.65612e+06
1.65115e+06	-3.5409e+06	4.65612e+06
1.95348e+06	-3.38352e+06	4.65612e+06
2.24094e+06	-3.20039e+06	4.65612e+06
2.51134e+06	-2.9929e+06	4.65612e+06
-7.8951e-10	-4.29789e+06	4.29789e+06
746321	-4.2326e+06	4.29789e+06
1.46997e+06	-4.0387e+06	4.29789e+06
2.14895e+06	-3.72208e+06	4.29789e+06
2.76263e+06	-3.29238e+06	4.29789e+06
-8.55316e-10	-4.65612e+06	3.90695e+06
405808	-4.63841e+06	3.90695e+06
808527	-4.58539e+06	3.90695e+06
1.20509e+06	-4.49747e+06	3.90695e+06
1.59249e+06	-4.37532e+06	3.90695e+06
1.96776e+06	-4.21988e+06	3.90695e+06
2.32806e+06	-4.03232e+06	3.90695e+06
2.67064e+06	-3.81407e+06	3.90695e+06
2.9929e+06	-3.5668e+06	3.90695e+06
-9.14612e-10	-4.97892e+06	3.48628e+06
864580	-4.90328e+06	3.48628e+06
1.70289e+06	-4.67865e+06	3.48628e+06
2.48946e+06	-4.31187e+06	3.48628e+06
3.20039e+06	-3.81407e+06	3.48628e+06
-9.66948e-10	-5.26382e+06	3.03907e+06
458772	-5.24379e+06	3.03907e+06
914053	-5.18385e+06	3.03907e+06
1.36238e+06	-5.08446e+06	3.03907e+06
1.80033e+06	-4.94637e+06	3.03907e+06
2.22459e+06	-4.77064e+06	3.03907e+06
2.63191e+06	-4.5586e+06	3.03907e+06
3.0192e+06	-4.31187e+06	3.03907e+06
3.38352e+06	-4.03232e+06	3.03907e+06
-1.01192e-09	-5.50866e+06	2.56873e+06
956569	-5.42497e+06	2.56873e+06
1.88407e+06	-5.17645e+06	2.56873e+06
2.75433e+06	-4.77064e+06	2.56873e+06
3.5409e+06	-4.21988e+06	2.56873e+06
-1.0492e-09	-5.71158e+06	2.07885e+06
497797	-5.68985e+06	2.07885e+06
991806	-5.62481e+06	2.07885e+06
1.47827e+06	-5.51696e+06	2.07885e+06
1.95348e+06	-5.36713e+06	2.07885e+06
2.41382e+06	-5.17645e+06	2.07885e+06
2.85579e+06	-4.94637e+06	2.07885e+06
3.27603e+06	-4.67865e+06	2.07885e+06
3.67133e+06	-4.37532e+06	2.07885e+06
-7.23599e-10	-3.93909e+06	4.69443e+06
684016	-3.87925e+06	4.69443e+06
1.34725e+06	-3.70153e+06	4.69443e+06
1.96955e+06	-3.41135e+06	4.69443e+06
2.532e+06	-3.01752e+06	4.69443e+06
-8.62352e-10	-4.69443e+06	3.93909e+06
815178	-4.62311e+06	3.93909e+06
1.60559e+06	-4.41132e+06	3.93909e+06
2.34721e+06	-4.06549e+06	3.93909e+06
3.01752e+06	-3.59614e+06	3.93909e+06
-9.74903e-10	-5.30712e+06	3.06407e+06
921572	-5.2265e+06	3.06407e+06
1.81514e+06	-4.98706e+06	3.06407e+06
2.65356e+06	-4.5961e+06	3.06407e+06
3.41135e+06	-4.06549e+06	3.06407e+06
-1.05783e-09	-5.75857e+06	2.09595e+06
999964	-5.67108e+06	2.09595e+06
1.96955e+06	-5.41128e+06	2.09595e+06
2.87928e+06	-4.98706e+06	2.09595e+06
3.70153e+06	-4.41132e+06	2.09595e+06
-7.29503e-10	-3.97123e+06	4.73273e+06
346115	-3.95612e+06	4.73273e+06
689597	-3.9109e+06	4.73273e+06
1.02783e+06	-3.83591e+06	4.73273e+06
1.35824e+06	-3.73174e+06	4.73273e+06
1.67831e+06	-3.59916e+06	4.73273e+06
1.98561e+06	-3.43919e+06	4.73273e+06
2.2778e+06	-3.25304e+06	4.73273e+06
2.55266e+06	-3.04214e+06	4.73273e+06
-8.02499e-10	-4.3686e+06	4.3686e+06
758600	-4.30223e+06	4.3686e+06
1.49415e+06	-4.10514e+06	4.3686e+06
2.1843e+06	-3.78332e+06	4.3686e+06
2.80808e+06	-3.34654e+06	4.3686e+06
-8.69388e-10	-4.73273e+06	3.97123e+06
412484	-4.71472e+06	3.97123e+06
821830	-4.66083e+06	3.97123e+06
1.22492e+06	-4.57146e+06	3.97123e+06
1.61869e+06	-4.44731e+06	3.97123e+06
2.00014e+06	-4.28931e+06	3.97123e+06
2.36636e+06	-4.09866e+06	3.97123e+06
2.71458e+06	-3.87682e+06	3.97123e+06
3.04214e+06	-3.62548e+06	3.97123e+06
-9.2966e-10	-5.06083e+06	3.54363e+06
878805	-4.98395e+06	3.54363e+06
1.73091e+06	-4.75563e+06	3.54363e+06
2.53042e+06	-4.38281e+06	3.54363e+06
3.25304e+06	-3.87682e+06	3.54363e+06
-9.82857e-10	-5.35042e+06	3.08907e+06
466320	-5.33006e+06	3.08907e+06
929091	-5.26914e+06	3.08907e+06
1.38479e+06	-5.16811e+06	3.08907e+06
1.82995e+06	-5.02775e+06	3.08907e+06
2.26119e+06	-4.84913e+06	3.08907e+06
2.67521e+06	-4.6336e+06	3.08907e+06
3.06888e+06	-4.38281e+06	3.08907e+06
3.43919e+06	-4.09866e+06	3.08907e+06
-1.02857e-09	-5.59929e+06	2.61099e+06
972307	-5.51423e+06	2.61099e+06
1.91507e+06	-5.26161e+06	2.61099e+06
2.79965e+06	-4.84913e+06	2.61099e+06
3.59916e+06	-4.28931e+06	2.61099e+06
-1.06646e-09	-5.80555e+06	2.11305e+06
505987	-5.78346e+06	2.11305e+06
1.00812e+06	-5.71735e+06	2.11305e+06
1.50259e+06	-5.60773e+06	2.11305e+06
1.98561e+06	-5.45543e+06	2.11305e+06
2.45353e+06	-5.26161e+06	2.11305e+06
2.90277e+06	-5.02775e+06	2.11305e+06
3.32993e+06	-4.75563e+06	2.11305e+06
3.73174e+06	-4.44731e+06	2.11305e+06
-7.35407e-10	-4.00337e+06	4.77103e+06
695178	-3.94255e+06	4.77103e+06
1.36923e+06	-3.76194e+06	4.77103e+06
2.00168e+06	-3.46702e+06	4.77103e+06
2.57332e+06	-3.06676e+06	4.77103e+06
-8.76424e-10	-4.77103e+06	4.00337e+06
828481	-4.69855e+06	4.00337e+06
1.63179e+06	-4.4833e+06	4.00337e+06
2.38551e+06	-4.13183e+06	4.00337e+06
3.06676e+06	-3.65482e+06	4.00337e+06
-9.90811e-10	-5.39372e+06	3.11407e+06
936610	-5.31178e+06	3.11407e+06
1.84476e+06	-5.06844e+06	3.11407e+06
2.69686e+06	-4.6711e+06	3.11407e+06
3.46702e+06	-4.13183e+06	3.11407e+06
-1.07509e-09	-5.85253e+06	2.13015e+06
1.01628e+06	-5.76362e+06	2.13015e+06
2.00168e+06	-5.49958e+06	2.13015e+06
2.92627e+06	-5.06844e+06	2.13015e+06
3.76194e+06	-4.4833e+06	2.13015e+06
-7.41311e-10	-4.03551e+06	4.80933e+06
351718	-4.02015e+06	4.80933e+06
700759	-3.9742e+06	4.80933e+06
1.04447e+06	-3.898e+06	4.80933e+06
1.38023e+06	-3.79214e+06	4.80933e+06
1.70548e+06	-3.65741e+06	4.80933e+06
2.01775e+06	-3.49485e+06	4.80933e+06
2.31467e+06	-3.3057e+06	4.80933e+06
2.59397e+06	-3.09138e+06	4.80933e+06
-8.15489e-10	-4.43931e+06	4.43931e+06
770879	-4.37187e+06	4.43931e+06
1.51833e+06	-4.17159e+06	4.43931e+06
2.21966e+06	-3.84456e+06	4.43931e+06
2.85354e+06	-3.40071e+06	4.43931e+06
-8.8346e-10	-4.80933e+06	4.03551e+06
419161	-4.79103e+06	4.03551e+06
835132	-4.73627e+06	4.03551e+06
1.24475e+06	-4.64546e+06	4.03551e+06
1.64489e+06	-4.51929e+06	4.03551e+06
2.03251e+06	-4.35874e+06	4.03551e+06
2.40467e+06	-4.165e+06	4.03551e+06
2.75852e+06	-3.93957e+06	4.03551e+06
3.09138e+06	-3.68416e+06	4.03551e+06
-9.44708e-10	-5.14275e+06	3.60099e+06
893029	-5.06462e+06	3.60099e+06
1.75892e+06	-4.8326e+06	3.60099e+06
2.57137e+06	-4.45375e+06	3.60099e+06
3.3057e+06	-3.93957e+06	3.60099e+06
-9.98765e-10	-5.43703e+06	3.13907e+06
473868	-5.41634e+06	3.13907e+06
944130	-5.35443e+06	3.13907e+06
1.40721e+06	-5.25176e+06	3.13907e+06
1.85957e+06	-5.10913e+06	3.13907e+06
2.29779e+06	-4.92762e+06	3.13907e+06
2.71851e+06	-4.7086e+06	3.13907e+06
3.11855e+06	-4.45375e+06	3.13907e+06
3.49485e+06	-4.165e+06	3.13907e+06
-1.04522e-09	-5.68992e+06	2.65326e+06
988045	-5.60348e+06	2.65326e+06
1.94607e+06	-5.34678e+06	2.65326e+06
2.84496e+06	-4.92762e+06	2.65326e+06
3.65741e+06	-4.35874e+06	2.65326e+06
-1.08372e-09	-5.89952e+06	2.14725e+06
514177	-5.87707e+06	2.14725e+06
1.02444e+06	-5.80989e+06	2.14725e+06
1.52691e+06	-5.6985e+06	2.14725e+06
2.01775e+06	-5.54373e+06	2.14725e+06
2.49324e+06	-5.34678e+06	2.14725e+06
2.94976e+06	-5.10913e+06	2.14725e+06
3.38383e+06	-4.8326e+06	2.14725e+06
3.79214e+06	-4.51929e+06	2.14725e+06
-7.47215e-10	-4.06765e+06	4.84763e+06
706340	-4.00585e+06	4.84763e+06
1.39122e+06	-3.82234e+06	4.84763e+06
2.03382e+06	-3.52269e+06	4.84763e+06
2.61463e+06	-3.116e+06	4.84763e+06
-8.90496e-10	-4.84763e+06	4.06765e+06
841783	-4.77399e+06	4.06765e+06
1.65799e+06	-4.55529e+06	4.06765e+06
2.42382e+06	-4.19817e+06	4.06765e+06
3.116e+06	-3.7135e+06	4.06765e+06
-1.00672e-09	-5.48033e+06	3.16407e+06
951649	-5.39707e+06	3.16407e+06
1.87438e+06	-5.14982e+06	3.16407e+06
2.74016e+06	-4.7461e+06	3.16407e+06
3.52269e+06	-4.19817e+06	3.16407e+06
-1.09235e-09	-5.9465e+06	2.16435e+06
1.0326e+06	-5.85616e+06	2.16435e+06
2.03382e+06	-5.58789e+06	2.16435e+06
2.97325e+06	-5.14982e+06	2.16435e+06
3.82234e+06	-4.55529e+06	2.16435e+06
-7.53119e-10	-4.09979e+06	4.88594e+06
357320	-4.08419e+06	4.88594e+06
711921	-4.0375e+06	4.88594e+06
1.0611e+06	-3.96009e+06	4.88594e+06
1.40221e+06	-3.85254e+06	4.88594e+06
1.73265e+06	-3.71567e+06	4.88594e+06
2.04989e+06	-3.55052e+06	4.88594e+06
2.35154e+06	-3.35835e+06	4.88594e+06
2.63529e+06	-3.14062e+06	4.88594e+06
-8.28478e-10	-4.51002e+06	4.51002e+06
783157	-4.44151e+06	4.51002e+06
1.54252e+06	-4.23804e+06	4.51002e+06
2.25501e+06	-3.9058e+06	4.51002e+06
2.89899e+06	-3.45488e+06	4.51002e+06
-8.97532e-10	-4.88594e+06	4.09979e+06
425837	-4.86734e+06	4.09979e+06
848434	-4.81171e+06	4.09979e+06
1.26457e+06	-4.71945e+06	4.09979e+06
1.67109e+06	-4.59128e+06	4.09979e+06
2.06489e+06	-4.42816e+06	4.09979e+06
2.44297e+06	-4.23135e+06	4.09979e+06
2.80246e+06	-4.00232e+06	4.09979e+06
3.14062e+06	-3.74284e+06	4.09979e+06
-9.59755e-10	-5.22466e+06	3.65835e+06
907253	-5.14529e+06	3.65835e+06
1.78694e+06	-4.90958e+06	3.65835e+06
2.61233e+06	-4.52469e+06	3.65835e+06
3.35835e+06	-4.00232e+06	3.65835e+06
-1.01467e-09	-5.52363e+06	3.18907e+06
481416	-5.50261e+06	3.18907e+06
959168	-5.43971e+06	3.18907e+06
1.42962e+06	-5.33542e+06	3.18907e+06
1.88919e+06	-5.19051e+06	3.18907e+06
2.33439e+06	-5.00611e+06	3.18907e+06
2.76181e+06	-4.7836e+06	3.18907e+06
3.16822e+06	-4.52469e+06	3.18907e+06
3.55052e+06	-4.23135e+06	3.18907e+06
-1.06187e-09	-5.78056e+06	2.69552e+06
1.00378e+06	-5.69274e+06	2.69552e+06
1.97707e+06	-5.43195e+06	2.69552e+06
2.89028e+06	-5.00611e+06	2.69552e+06
3.71567e+06	-4.42816e+06	2.69552e+06
-1.10099e-09	-5.99349e+06	2.18145e+06
522367	-5.97068e+06	2.18145e+06
1.04076e+06	-5.90243e+06	2.18145e+06
1.55123e+06	-5.78927e+06	2.18145e+06
2.04989e+06	-5.63204e+06	2.18145e+06
2.53296e+06	-5.43195e+06	2.18145e+06
2.99674e+06	-5.19051e+06	2.18145e+06
3.43772e+06	-4.90958e+06	2.18145e+06
3.85254e+06	-4.59128e+06	2.18145e+06

CELLS	48	1008
20	0	14	16	2	71	85	87	73	9	15	10	1	80	86	81	72	51	56	57	52	
20	71	85	87	73	142	156	158	144	80	86	81	72	151	157	152	143	122	127	128	123	
20	142	156	158	144	213	227	229	215	151	157	152	143	222	228	223	214	193	198	199	194	
20	213	227	229	215	284	298	300	286	222	228	223	214	293	299	294	285	264	269	270	265	
20	2	16	18	4	73	87	89	75	10	17	11	3	81	88	82	74	52	57	58	53	
20	73	87	89	75	144	158	160	146	81	88	82	74	152	159	153	145	123	128	129	124	
20	144	158	160	146	215	229	231	217	152	159	153	145	223	230	224	216	194	199	200	195	
20	215	229	231	217	286	300	302	288	223	230	224	216	294	301	295	287	265	270	271	266	
20	4	18	20	6	75	89	91	77	11	19	12	5	82	90	83	76	53	58	59	54	
20	75	89	91	77	146	160	162	148	82	90	83	76	153	161	154	147	124	129	130	125	
20	146	160	162	148	217	231	233	219	153	161	154	147	224	232	225	218	195	200	201	196	
20	217	231	233	219	288	302	304	290	224	232	225	218	295	303	296	289	266	271	272	267	
20	6	20	22	8	77	91	93	79	12	21	13	7	83	92	84	78	54	59	60	55	
20	77	91	93	79	148	162	164	150	83	92	84	78	154	163	155	149	125	130	131	126	
20	148	162	164	150	219	233	235	221	154	163	155	149	225	234	226	220	196	201	202	197	
20	219	233	235	221	290	304	306	292	225	234	226	220	296	305	297	291	267	272	273	268	
20	14	28	30	16	85	99	101	87	23	29	24	15	94	100	95	86	56	61	62	57	
20	85	99	101	87	156	170	172	158	94	100	95	86	165	171	166	157	127	132	133	128	
20	156	170	172	158	227	241	243	229	165	171	166	157	236	242	237	228	198	203	204	199	
20	227	241	243	229	298	312	314	300	236	242	237	228	307	313	308	299	269	274	275	270	
20	16	30	32	18	87	101	103	89	24	31	25	17	95	102	96	88	57	62	63	58	
20	87	101	103	89	158	172	174	160	95	102	96	88	166	173	167	159	128	133	134	129	
20	158	172	174	160	229	243	245	231	166	173	167	159	237	244	238	230	199	204	205	200	
20	229	243	245	231	300	314	316	302	237	244	238	230	308	315	309	301	270	275	276	271	
20	18	32	34	20	89	103	105	91	25	33	26	19	96	104	97	90	58	63	64	59	
20	89	103	105	91	160	174	176	162	96	104	97	90	167	175	168	161	129	134	135	130	
20	160	174	176	162	231	245	247	233	167	175	168	161	238	246	239	232	200	205	206	201	
20	231	245	247	233	302	316	318	304	238	246	239	232	309	317	310	303	271	276	277	272	
20	20	34	36	22	91	105	107	93	26	35	27	21	97	106	98	92	59	64	65	60	
20	91	105	107	93	162	176	178	164	97	106	98	92	168	177	169	163	130	135	136	131	
20	162	176	178	164	233	247	249	235	168	177	169	163	239	248	240	234	201	206	207	202	
20	233	247	249	235	304	318	320	306	239	248	240	234	310	319	311	305	272	277	278	273	
20	28	42	44	30	99	113	115	101	37	43	38	29	108	114	109	100	61	66	67	62	
20	99	113	115	101	170	184	186	172	108	114	109	100	179	185	180	171	132	137	138	133	
20	170	184	186	172	241	255	257	243	179	185	180	171	250	256	251	242	203	208	209	204	
20	241	255	257	243	312	326	328	314	250	256	251	242	321	327	322	313	274	279	280	275	
20	30	44	46	32	101	115	117	103	38	45	39	31	109	116	110	102	62	67	68	63	
20	101	115	117	103	172	186	188	174	109	116	110	102	180	187	181	173	133	138	139	134	
20	172	186	188	174	243	257	259	245	180	187	181	173	251	258	252	244	204	209	210	205	
20	243	257	259	245	314	328	330	316	251	258	252	244	322	329	323	315	275	280	281	276	
20	32	46	48	34	103	117	119	105	39	47	40	33	110	118	111	104	63	68	69	64	
20	103	117	119	105	174	188	190	176	110	118	111	104	181	189	182	175	134	139	140	135	
20	174	188	190	176	245	259	261	247	181	189	182	175	252	260	253	246	205	210	211	206	
20	245	259	261	247	316	330	332	318	252	260	253	246	323	331	324	317	276	281	282	277	
20	34	48	50	36	105	119	121	107	40	49	41	35	111	120	112	106	64	69	70	65	
20	105	119	121	107	176	190	192	178	111	120	112	106	182	191	183	177	135	140	141	136	
20	176	190	192	178	247	261	263	249	182	191	183	177	253	262	254	248	206	211	212	207	
20	247	261	263	249	318	332	334	320	253	262	254	248	324	333	325	319	277	282	283	278	

CELL_TYPES	48
25
25
25
25
25
25
25
25
25
25
25
25
25
25
25
25
25
25
25
25
25
25
25
25
25
25
25
25
25
25
25
25
25
25
25
25
25
25
25
25
25
25
25
25
25
25
25
25

CELL_DATA	48
SCALARS density double 1
LOOKUP_TABLE table0
0
0
0
0
0
0
0
0
0
0
0
0
0
0
0
0
0
0
0
0
0
100
0
0
0
100
0
0
0
0
0
0
0
0
0
0
0
0
0
0
0
0
0
0
0
0
0
0

