# vtk DataFile Version 3.0
Gravity inversion using tesseroids
ASCII
DATASET UNSTRUCTURED_GRID

POINTS	4774	double
-8.41244e-10	-4.57952e+06	3.84267e+06
79923.6	-4.57882e+06	3.84267e+06
159823	-4.57673e+06	3.84267e+06
239673	-4.57324e+06	3.84267e+06
319451	-4.56836e+06	3.84267e+06
399131	-4.56209e+06	3.84267e+06
478690	-4.55443e+06	3.84267e+06
558103	-4.54538e+06	3.84267e+06
637346	-4.53495e+06	3.84267e+06
716395	-4.52314e+06	3.84267e+06
795225	-4.50995e+06	3.84267e+06
873813	-4.49538e+06	3.84267e+06
952135	-4.47945e+06	3.84267e+06
1.03017e+06	-4.46215e+06	3.84267e+06
1.10789e+06	-4.44349e+06	3.84267e+06
1.18527e+06	-4.42348e+06	3.84267e+06
1.26229e+06	-4.40212e+06	3.84267e+06
1.33892e+06	-4.37942e+06	3.84267e+06
1.41515e+06	-4.35538e+06	3.84267e+06
1.49095e+06	-4.33002e+06	3.84267e+06
1.56629e+06	-4.30334e+06	3.84267e+06
-8.53435e-10	-4.64589e+06	3.76216e+06
162139	-4.64305e+06	3.76216e+06
324081	-4.63457e+06	3.76216e+06
485627	-4.62043e+06	3.76216e+06
646582	-4.60067e+06	3.76216e+06
806749	-4.5753e+06	3.76216e+06
965934	-4.54436e+06	3.76216e+06
1.12394e+06	-4.50788e+06	3.76216e+06
1.28058e+06	-4.46591e+06	3.76216e+06
1.43566e+06	-4.4185e+06	3.76216e+06
1.58899e+06	-4.3657e+06	3.76216e+06
-8.65367e-10	-4.71084e+06	3.68051e+06
82215.4	-4.71012e+06	3.68051e+06
164406	-4.70797e+06	3.68051e+06
246546	-4.70438e+06	3.68051e+06
328611	-4.69936e+06	3.68051e+06
410576	-4.69291e+06	3.68051e+06
492416	-4.68503e+06	3.68051e+06
574107	-4.67572e+06	3.68051e+06
655622	-4.66499e+06	3.68051e+06
736937	-4.65284e+06	3.68051e+06
818028	-4.63927e+06	3.68051e+06
898870	-4.62428e+06	3.68051e+06
979438	-4.60789e+06	3.68051e+06
1.05971e+06	-4.5901e+06	3.68051e+06
1.13965e+06	-4.5709e+06	3.68051e+06
1.21925e+06	-4.55032e+06	3.68051e+06
1.29848e+06	-4.52835e+06	3.68051e+06
1.37732e+06	-4.505e+06	3.68051e+06
1.45573e+06	-4.48027e+06	3.68051e+06
1.5337e+06	-4.45418e+06	3.68051e+06
1.6112e+06	-4.42674e+06	3.68051e+06
-8.77034e-10	-4.77435e+06	3.59773e+06
166622	-4.77144e+06	3.59773e+06
333042	-4.76272e+06	3.59773e+06
499056	-4.7482e+06	3.59773e+06
664461	-4.72789e+06	3.59773e+06
829058	-4.70182e+06	3.59773e+06
992644	-4.67002e+06	3.59773e+06
1.15502e+06	-4.63253e+06	3.59773e+06
1.31599e+06	-4.5894e+06	3.59773e+06
1.47536e+06	-4.54068e+06	3.59773e+06
1.63292e+06	-4.48642e+06	3.59773e+06
-8.88435e-10	-4.83641e+06	3.51386e+06
84407.1	-4.83568e+06	3.51386e+06
168788	-4.83347e+06	3.51386e+06
253118	-4.82979e+06	3.51386e+06
337371	-4.82463e+06	3.51386e+06
421521	-4.81801e+06	3.51386e+06
505543	-4.80992e+06	3.51386e+06
589411	-4.80036e+06	3.51386e+06
673099	-4.78935e+06	3.51386e+06
756582	-4.77687e+06	3.51386e+06
839835	-4.76294e+06	3.51386e+06
922831	-4.74756e+06	3.51386e+06
1.00555e+06	-4.73073e+06	3.51386e+06
1.08796e+06	-4.71246e+06	3.51386e+06
1.17003e+06	-4.69275e+06	3.51386e+06
1.25176e+06	-4.67162e+06	3.51386e+06
1.3331e+06	-4.64906e+06	3.51386e+06
1.41403e+06	-4.62509e+06	3.51386e+06
1.49453e+06	-4.5997e+06	3.51386e+06
1.57458e+06	-4.57292e+06	3.51386e+06
1.65415e+06	-4.54474e+06	3.51386e+06
-8.99565e-10	-4.897e+06	3.42892e+06
170903	-4.89402e+06	3.42892e+06
341598	-4.88507e+06	3.42892e+06
511876	-4.87018e+06	3.42892e+06
681531	-4.84935e+06	3.42892e+06
850356	-4.82261e+06	3.42892e+06
1.01814e+06	-4.78999e+06	3.42892e+06
1.18469e+06	-4.75154e+06	3.42892e+06
1.3498e+06	-4.7073e+06	3.42892e+06
1.51326e+06	-4.65733e+06	3.42892e+06
1.67487e+06	-4.60168e+06	3.42892e+06
-9.10421e-10	-4.9561e+06	3.34293e+06
86495.9	-4.95535e+06	3.34293e+06
172965	-4.95308e+06	3.34293e+06
259382	-4.94931e+06	3.34293e+06
345720	-4.94403e+06	3.34293e+06
431953	-4.93724e+06	3.34293e+06
518054	-4.92895e+06	3.34293e+06
603997	-4.91916e+06	3.34293e+06
689756	-4.90787e+06	3.34293e+06
775305	-4.89508e+06	3.34293e+06
860618	-4.88081e+06	3.34293e+06
945668	-4.86504e+06	3.34293e+06
1.03043e+06	-4.8478e+06	3.34293e+06
1.11488e+06	-4.82908e+06	3.34293e+06
1.19899e+06	-4.80888e+06	3.34293e+06
1.28273e+06	-4.78723e+06	3.34293e+06
1.36609e+06	-4.76411e+06	3.34293e+06
1.44902e+06	-4.73954e+06	3.34293e+06
1.53152e+06	-4.71353e+06	3.34293e+06
1.61355e+06	-4.68608e+06	3.34293e+06
1.69509e+06	-4.65721e+06	3.34293e+06
-9.20999e-10	-5.01369e+06	3.25593e+06
174975	-5.01063e+06	3.25593e+06
349737	-5.00147e+06	3.25593e+06
524073	-4.98622e+06	3.25593e+06
697770	-4.96489e+06	3.25593e+06
870618	-4.93752e+06	3.25593e+06
1.0424e+06	-4.90413e+06	3.25593e+06
1.21292e+06	-4.86476e+06	3.25593e+06
1.38196e+06	-4.81947e+06	3.25593e+06
1.54931e+06	-4.7683e+06	3.25593e+06
1.71478e+06	-4.71133e+06	3.25593e+06
-9.31298e-10	-5.06975e+06	3.16793e+06
88479.3	-5.06898e+06	3.16793e+06
176932	-5.06666e+06	3.16793e+06
265330	-5.0628e+06	3.16793e+06
353648	-5.0574e+06	3.16793e+06
441858	-5.05046e+06	3.16793e+06
529933	-5.04198e+06	3.16793e+06
617847	-5.03196e+06	3.16793e+06
705573	-5.02041e+06	3.16793e+06
793083	-5.00733e+06	3.16793e+06
880352	-4.99273e+06	3.16793e+06
967353	-4.9766e+06	3.16793e+06
1.05406e+06	-4.95896e+06	3.16793e+06
1.14045e+06	-4.93981e+06	3.16793e+06
1.22648e+06	-4.91915e+06	3.16793e+06
1.31215e+06	-4.897e+06	3.16793e+06
1.39741e+06	-4.87335e+06	3.16793e+06
1.48225e+06	-4.84822e+06	3.16793e+06
1.56664e+06	-4.82162e+06	3.16793e+06
1.65055e+06	-4.79354e+06	3.16793e+06
1.73396e+06	-4.764e+06	3.16793e+06
-9.41312e-10	-5.12426e+06	3.07897e+06
178834	-5.12114e+06	3.07897e+06
357451	-5.11178e+06	3.07897e+06
535631	-5.09619e+06	3.07897e+06
713160	-5.07439e+06	3.07897e+06
889819	-5.04641e+06	3.07897e+06
1.06539e+06	-5.01229e+06	3.07897e+06
1.23967e+06	-4.97205e+06	3.07897e+06
1.41244e+06	-4.92576e+06	3.07897e+06
1.58348e+06	-4.87346e+06	3.07897e+06
1.7526e+06	-4.81523e+06	3.07897e+06
-9.5104e-10	-5.17722e+06	2.98907e+06
90354.9	-5.17643e+06	2.98907e+06
180682	-5.17406e+06	2.98907e+06
270955	-5.17012e+06	2.98907e+06
361145	-5.16461e+06	2.98907e+06
451224	-5.15752e+06	2.98907e+06
541167	-5.14886e+06	2.98907e+06
630944	-5.13863e+06	2.98907e+06
720530	-5.12683e+06	2.98907e+06
809895	-5.11348e+06	2.98907e+06
899015	-5.09856e+06	2.98907e+06
987860	-5.0821e+06	2.98907e+06
1.0764e+06	-5.06408e+06	2.98907e+06
1.16462e+06	-5.04453e+06	2.98907e+06
1.25248e+06	-5.02343e+06	2.98907e+06
1.33996e+06	-5.00081e+06	2.98907e+06
1.42703e+06	-4.97666e+06	2.98907e+06
1.51367e+06	-4.951e+06	2.98907e+06
1.59985e+06	-4.92383e+06	2.98907e+06
1.68554e+06	-4.89516e+06	2.98907e+06
1.77071e+06	-4.86499e+06	2.98907e+06
-9.60478e-10	-5.2286e+06	2.89826e+06
182475	-5.22541e+06	2.89826e+06
364728	-5.21586e+06	2.89826e+06
546537	-5.19995e+06	2.89826e+06
727680	-5.17771e+06	2.89826e+06
907936	-5.14916e+06	2.89826e+06
1.08709e+06	-5.11434e+06	2.89826e+06
1.26491e+06	-5.07328e+06	2.89826e+06
1.4412e+06	-5.02605e+06	2.89826e+06
1.61573e+06	-4.97269e+06	2.89826e+06
1.78829e+06	-4.91327e+06	2.89826e+06
-9.69623e-10	-5.27838e+06	2.80657e+06
92120.5	-5.27758e+06	2.80657e+06
184213	-5.27517e+06	2.80657e+06
276249	-5.27115e+06	2.80657e+06
368201	-5.26552e+06	2.80657e+06
460041	-5.2583e+06	2.80657e+06
551741	-5.24947e+06	2.80657e+06
643273	-5.23904e+06	2.80657e+06
734609	-5.22701e+06	2.80657e+06
825721	-5.2134e+06	2.80657e+06
916581	-5.19819e+06	2.80657e+06
1.00716e+06	-5.1814e+06	2.80657e+06
1.09744e+06	-5.16304e+06	2.80657e+06
1.18738e+06	-5.1431e+06	2.80657e+06
1.27696e+06	-5.12159e+06	2.80657e+06
1.36615e+06	-5.09853e+06	2.80657e+06
1.45492e+06	-5.07391e+06	2.80657e+06
1.54325e+06	-5.04774e+06	2.80657e+06
1.63111e+06	-5.02004e+06	2.80657e+06
1.71847e+06	-4.99081e+06	2.80657e+06
1.80531e+06	-4.96006e+06	2.80657e+06
-9.78473e-10	-5.32656e+06	2.71402e+06
185894	-5.32331e+06	2.71402e+06
371562	-5.31358e+06	2.71402e+06
556777	-5.29738e+06	2.71402e+06
741314	-5.27472e+06	2.71402e+06
924947	-5.24564e+06	2.71402e+06
1.10745e+06	-5.21016e+06	2.71402e+06
1.28861e+06	-5.16834e+06	2.71402e+06
1.4682e+06	-5.12022e+06	2.71402e+06
1.646e+06	-5.06586e+06	2.71402e+06
1.82179e+06	-5.00533e+06	2.71402e+06
-9.87025e-10	-5.37311e+06	2.62064e+06
93773.8	-5.3723e+06	2.62064e+06
187519	-5.36984e+06	2.62064e+06
281207	-5.36575e+06	2.62064e+06
374809	-5.36003e+06	2.62064e+06
468298	-5.35267e+06	2.62064e+06
561643	-5.34368e+06	2.62064e+06
654818	-5.33306e+06	2.62064e+06
747793	-5.32082e+06	2.62064e+06
840540	-5.30696e+06	2.62064e+06
933031	-5.29148e+06	2.62064e+06
1.02524e+06	-5.27439e+06	2.62064e+06
1.11713e+06	-5.2557e+06	2.62064e+06
1.20869e+06	-5.2354e+06	2.62064e+06
1.29987e+06	-5.21351e+06	2.62064e+06
1.39066e+06	-5.19003e+06	2.62064e+06
1.48103e+06	-5.16497e+06	2.62064e+06
1.57095e+06	-5.13833e+06	2.62064e+06
1.66038e+06	-5.11014e+06	2.62064e+06
1.74931e+06	-5.08038e+06	2.62064e+06
1.83771e+06	-5.04908e+06	2.62064e+06
-9.95276e-10	-5.41803e+06	2.52647e+06
189087	-5.41473e+06	2.52647e+06
377943	-5.40483e+06	2.52647e+06
566339	-5.38835e+06	2.52647e+06
754044	-5.3653e+06	2.52647e+06
940831	-5.33572e+06	2.52647e+06
1.12647e+06	-5.29964e+06	2.52647e+06
1.31074e+06	-5.25709e+06	2.52647e+06
1.49341e+06	-5.20815e+06	2.52647e+06
1.67426e+06	-5.15285e+06	2.52647e+06
1.85308e+06	-5.09128e+06	2.52647e+06
-1.00322e-09	-5.4613e+06	2.43153e+06
95312.8	-5.46047e+06	2.43153e+06
190597	-5.45797e+06	2.43153e+06
285822	-5.45382e+06	2.43153e+06
380961	-5.448e+06	2.43153e+06
475984	-5.44052e+06	2.43153e+06
570861	-5.43138e+06	2.43153e+06
665565	-5.42059e+06	2.43153e+06
760066	-5.40815e+06	2.43153e+06
854336	-5.39406e+06	2.43153e+06
948345	-5.37833e+06	2.43153e+06
1.04207e+06	-5.36096e+06	2.43153e+06
1.13547e+06	-5.34196e+06	2.43153e+06
1.22853e+06	-5.32133e+06	2.43153e+06
1.32121e+06	-5.29908e+06	2.43153e+06
1.41349e+06	-5.27521e+06	2.43153e+06
1.50534e+06	-5.24974e+06	2.43153e+06
1.59673e+06	-5.22267e+06	2.43153e+06
1.68763e+06	-5.194e+06	2.43153e+06
1.77803e+06	-5.16376e+06	2.43153e+06
1.86787e+06	-5.13194e+06	2.43153e+06
-1.01087e-09	-5.5029e+06	2.33584e+06
192049	-5.49955e+06	2.33584e+06
383863	-5.4895e+06	2.33584e+06
575210	-5.47276e+06	2.33584e+06
765856	-5.44935e+06	2.33584e+06
955569	-5.4193e+06	2.33584e+06
1.14412e+06	-5.38265e+06	2.33584e+06
1.33127e+06	-5.33944e+06	2.33584e+06
1.51681e+06	-5.28973e+06	2.33584e+06
1.70049e+06	-5.23357e+06	2.33584e+06
[...]
CELL_DATA	850
SCALARS density double 1
LOOKUP_TABLE table0
-2.98547
-6.27712
-7.50576
1.46243
1.32558
4.51793
2.69205
-1.10305
-3.16671
-3.10444
7.62748
5.57535
-0.109954
-5.62195
-1.00143
6.94705
5.2399
-0.160886
-6.27195
-2.85001
3.00705
2.48819
0.89966
0.739763
-1.01903
-0.93178
1.64702
7.13616
9.07999
-5.77982
-3.88139
0.389771
10.7996
13.6828
-5.68163
-4.0038
-1.67682
4.165
7.20193
-3.47306
2.03767
5.0246
9.11578
9.77093
-3.28596
5.2286
7.86146
10.6048
9.4594
-5.94092
-0.421178
-0.117592
0.934374
2.41199
-2.60653
4.77188
7.0265
8.66311
4.67033
-7.02258
8.35422
12.9083
16.6635
8.98677
-7.91433
5.11145
7.39365
9.18634
2.71951
-5.65618
-2.25567
-4.74663
-6.60449
-2.66662
3.87827
-5.91253
-9.08972
-6.43866
1.81037
4.3671
-8.03173
-12.4368
-10.264
-11.2089
5.96028
-10.0031
-15.7875
-16.2925
-4.05277
9.94044
-8.24799
-12.5705
-14.8057
-4.91511
7.2584
-5.39974
-8.47111
-11.1186
-5.25979
5.75592
-0.36016
0.134441
0.60063
2.57844
0.735463
-2.66584
-4.91893
-5.05155
2.55984
1.76088
-1.65929
-5.55691
-6.12263
-1.86399
-2.94754
-1.28008
-4.50373
-4.5511
-8.0568
-0.76672
-6.74986
-14.5784
-17.0506
-7.13354
6.73104
-1.95612
-7.58774
-0.597225
4.91668
5.85783
10.0267
14.6222
7.18692
-2.57414
12.6236
3.48871
42.4033
50.5321
50.2
60.087
-11.7616
-32.9253
-0.552244
-17.9244
69.4891
83.9603
84.072
100.179
40.7694
3.18281
0.252407
5.99599
21.0547
20.3843
-4.95768
-8.30222
-9.81008
-3.35277
4.49143
-3.04718
-1.44516
2.74741
9.19392
2.39395
-6.10581
-9.41805
-11.4087
-2.05058
9.45305
-8.08209
-17.5832
-24.1645
-9.35347
4.51836
8.39034
6.32524
13.718
25.81
11.8294
21.2617
28.2063
14.4401
7.12103
15.888
8.57589
53.6899
65.5317
49.0145
56.7379
0.78114
-14.1531
3.67305
-12.4192
89.1916
107.709
75.1867
85.488
31.5979
7.64955
2.56659
-4.85008
-4.93966
0.663746
14.936
16.703
2.24028
-0.714365
28.2457
33.2806
0.91475
-5.04029
22.6532
22.6213
-3.5212
-9.14446
43.7626
48.0193
-12.4412
-25.5171
25.5627
20.0075
-2.39384
40.8003
42.0204
46.3425
47.9222
52.8853
41.1996
42.938
46.5911
48.658
68.4064
74.495
79.1749
88.3439
56.9918
56.3353
66.0348
67.1217
92.9332
101.122
111.965
122.612
63.996
60.3168
78.6621
75.6871
70.9309
46.6953
97.1645
62.9419
38.9553
29.6173
59.9119
43.6806
29.5705
41.4718
60.3109
69.263
40.341
42.1905
53.4739
54.8176
37.0847
33.7841
86.0948
94.0415
46.2597
44.3444
64.6448
60.9667
35.2275
27.139
75.9545
45.4283
31.7146
6.21078
42.223
30.3518
13.1187
6.81199
2.85503
2.36024
-4.26562
-5.53236
0.495915
-5.44797
-8.24925
-11.1757
-6.76612
7.87791
-5.93332
-6.08069
-0.583438
4.86978
4.17455
-2.65584
-9.7987
-10.1407
-4.46443
-1.24246
0.0161003
-0.625585
-12.7007
-8.73934
-20.8469
-27.8277
7.59317
35.5543
45.8805
31.8974
32.2212
63.6491
73.4885
24.9381
15.567
58.9234
60.7048
30.7307
25.743
92.078
102.222
4.34659
-15.9676
71.7037
68.5617
29.5083
60.8595
56.0857
61.6526
54.2773
57.8838
57.9842
61.5456
56.3838
58.2252
86.5356
95.6935
75.145
79.7635
85.6178
89.0626
74.7133
74.0575
119.581
131.085
96.0885
100.389
106.272
105.559
83.666
75.7726
88.5255
51.0433
65.0629
35.072
68.0033
41.2808
46.7911
25.2614
28.1835
25.3051
30.7871
36.0969
5.84617
5.0944
29.1546
29.6464
7.41749
4.33233
44.3169
49.124
1.51952
3.54857
33.512
28.7342
-0.525873
-5.78927
-9.38239
10.0449
6.36487
-4.90859
-8.20669
-2.48192
17.692
20.0849
20.3929
22.1542
24.7294
26.2678
6.83394
7.26726
11.4778
12.3095
25.7485
27.4731
30.4715
29.1884
5.28859
5.63131
12.38
12.1
-2.55799
12.5556
14.963
7.65155
-1.05062
-1.54599
0.932659
-1.00764
-5.64258
-9.11318
3.79519
-0.574557
-0.967476
-1.7268
-2.5266
7.08351
-10.7076
-11.4057
-4.33751
9.15486
4.63519
-5.27078
-14.1832
-15.6756
-13.0506
-8.20955
-30.444
-43.1115
4.7956
16.3061
-8.85625
-11.7702
3.92349
35.3864
45.073
22.5974
11.2505
60.2127
62.4485
31.762
28.9389
69.3706
80.5029
-3.18686
-28.812
74.3458
71.4129
28.024
19.261
105.44
119.159
30.3518
62.5936
59.7536
63.3805
57.9008
59.4101
60.966
66.681
58.19
60.9126
88.3574
91.9707
76.4613
74.8651
92.1939
103.041
76.9044
79.5791
109.331
108.513
83.2686
73.5707
129.5
144.142
93.1235
93.4799
67.0215
35.6357
41.7359
19.9065
97.0791
50.6051
61.6338
31.415
26.4947
22.1728
29.8857
28.8707
8.44441
4.24931
31.671
32.9293
10.7549
8.44842
30.8946
24.0447
-1.81365
-8.60969
36.9002
32.7723
4.54624
0.573118
-3.72302
-9.14738
-18.2518
-14.9701
8.74469
-5.53892
-5.93121
-6.2868
-1.90676
-7.05278
-13.376
-10.4662
4.13675
-13.3383
-20.8942
-5.78696
-2.76419
-6.07105
-3.30223
-27.5497
-30.0089
-30.1038
-33.7173
0.53529
6.60654
-1.2182
3.52275
-37.3012
-38.7984
-42.5917
-43.3138
3.70131
-7.37042
-7.97253
-8.93325
-5.58874
5.77959
0.00383924
0.700378
0.129207
-1.5402
5.77319
1.87094
1.04615
-2.86966
-8.19787
3.31505
-13.2788
-15.2278
-10.8009
4.67851
6.29476
-7.06938
-13.5126
-16.6497
-2.8037
2.64221
13.1144
12.5502
15.6892
26.9958
9.03351
28.6742
33.5785
60.1973
74.0376
50.5104
56.14
23.4779
18.354
20.5536
11.6413
97.9988
118.185
71.0048
77.9382
10.6244
-1.88475
1.65429
-16.7223
21.5863
9.59193
6.43054
-0.00306698
1.06786
-0.383504
-16.8756
-24.727
-14.298
-11.9521
-33.7435
-33.9158
-14.2707
-10.7883
-37.1011
-39.2274
-11.2366
-5.58556
-36.8328
-29.676
-9.0888
-0.833303
-45.8048
-42.2543
6.26594
7.31792
0.12779
9.12007
13.1999
15.2721
-13.5482
-2.6493
-49.1524
-47.8017
-49.8567
-54.0751
-57.0879
-53.2194
-56.9799
-59.9982
-65.1636
-69.2245
-67.8977
-78.8974
-80.7772
-79.6697
-83.4257
-92.8015
-101.975
-74.2513
-68.6652
-91.5655
-88.507
-97.0968
-98.2146
-123.89
-132.347
-36.3573
-17.8736
-53.2033
-21.4926
-58.433
-22.2283
-86.4099
-38.8438
-35.593
-50.85
-60.207
-64.6257
-39.103
-36.8581
-72.5499
-81.6319
-47.2864
-46.7098
-73.9878
-73.7773
-34.6486
-26.1287
-100.651
-105.615
-50.9794
-43.5287
-44.1051
-18.7474
-5.28578
5.98829
-73.4555
-36.6757
-20.4271
4.62077
-4.84811
-5.88474
1.26882
4.75875
4.90728
1.12398
-0.443856
-0.71671
-0.578243
0.754052
-3.73471
-3.48242
-0.124674
4.18814
-1.6211
-4.13228
-7.49265
-8.37642
-0.265849
4.80549
-0.737847
-6.10482
-10.9605
-8.09444
-0.342084
7.17791
5.70579
-0.830222
-11.3515
-2.77861
6.70227
6.64422
2.05328
-5.4735
-2.40616
-0.756127
1.16227
-4.70218
-7.25293
0.121932
-18.0661
-22.8326
-50.4567
-58.8974
-62.6094
-75.7273
-13.6001
-2.13494
-22.4468
-13.9795
-78.029
-91.8067
-103.649
-123.134
11.8689
38.1714
-8.46178
10.0713
-28.7211
-8.15014
-8.27271
-7.97004
-24.5703
-13.6152
6.11833
9.6195
11.868
2.51706
-3.29312
6.23439
6.39763
3.8558
-4.99041
-3.30004
11.5646
12.8231
9.57576
-3.68169
-3.1368
4.70042
1.5659
-4.69972
-11.41
2.97242
6.85117
5.82453
1.66154
-6.5996
2.37063
9.793
10.8635
7.83964
-3.64456
-2.62351
9.83423
11.6156
10.1837
-0.28117
-4.25119
8.51959
9.99053
6.7341
-2.72772
-3.03007
6.03292
4.96971
0.876671
-2.40807
-0.906993
10.6216
12.6679
10.3824
-3.00319
-2.56586
9.72178
11.9915
10.7888
-1.09957
-6.3493
5.42726
7.11415
7.66582
0.727255
-6.07786
16.6151
14.9546
5.91367
-12.4333
-0.285784
10.4104
5.40301
-5.13
-16.3641
4.41211
12.1245
9.93508
2.75343
-8.62364
0.597465
5.87127
1.35622
-5.79124
-12.9652
2.54812
1.231
-2.27536
-4.59236
-5.50635
1.82871
1.33969
-3.86918
-9.31011
-9.83767
3.8972
7.7363
1.07823
-9.97192
-13.6837
4.65824
14.4576
12.8772
5.27085
-6.72767
-2.31767
5.14224
3.93795
1.62298
-3.71181
-4.59965
-5.10723
-6.52296
-4.12873
-0.682935
-0.554342

